ITEM: TIMESTEP
600000
ITEM: NUMBER OF ATOMS
31296
ITEM: BOX BOUNDS pp pp pp
-3.4000000000000000e+01 3.4000000000000000e+01
-2.0699999999999999e+01 2.0699999999999999e+01
-1.0150000000000000e+01 9.8499999999999996e+00
ITEM: ATOMS type x y z v_myenergy mux muy muz id
1 -19 -10.4 -0.15 2.22312e-11 0 0 0 33
1 -19 -10.7 -0.15 5.56144e-12 0 0 0 370
2 -18.5248 -10.6166 -0.15 5.55555e-12 6.63167e-21 3.05954e-21 0.00190284 21911
2 -18.8981 -10.6 -0.15 5.55555e-12 -3.82618e-21 -2.27505e-21 0.00228079 16961
2 -18.8054 -10.4635 -0.15 2.77778e-12 -1.07455e-20 5.10172e-20 0.00291066 12915
2 -18.6357 -10.48 -0.15 1.40242e-24 6.71064e-20 -3.30064e-22 0.00224272 12856
1 -18.491 -10.4497 -0.15 2.77851e-11 0 0 0 6833
1 -18.6944 -10.7 -0.15 1.3897e-11 0 0 0 3634
1 -18.3889 -10.7 -0.15 1.66709e-11 0 0 0 363
2 -18.3713 -10.5249 -0.15 5.55555e-12 -3.36913e-21 6.25148e-21 0.00166319 21597
2 -18.2354 -10.6083 -0.15 5.55556e-12 1.42807e-21 -1.73358e-22 0.00209066 16962
1 -18.234 -10.425 -0.15 3.61193e-11 0 0 0 6676
2 -18.0805 -10.5099 -0.15 1.11111e-11 -2.2879e-21 3.03118e-21 0.00219705 21910
2 -17.9284 -10.6015 -0.15 2.77778e-12 -3.90375e-23 -1.30811e-20 0.00224599 21909
2 -17.7691 -10.5035 -0.15 5.55556e-12 -5.2498e-21 8.90062e-21 0.00233798 16963
2 -17.6185 -10.602 -0.15 2.77778e-12 9.42552e-21 -1.31834e-20 0.00223587 15234
1 -17.6054 -10.4059 -0.15 2.77925e-11 0 0 0 6862
1 -17.9241 -10.4046 -0.15 3.61136e-11 0 0 0 6832
1 -18.0833 -10.7 -0.15 1.94446e-11 0 0 0 3635
1 -17.7778 -10.7 -0.15 1.11157e-11 0 0 0 364
1 -17.4722 -10.7 -0.15 1.11191e-11 0 0 0 3636
2 -17.4563 -10.5092 -0.15 5.55556e-12 3.09602e-22 5.51634e-21 0.00224538 21970
2 -16.829 -10.3589 -0.15 2.77777e-12 1.00111e-20 6.70323e-21 0.00165656 27783
2 -17.1481 -10.5176 -0.15 2.77778e-12 -3.64211e-21 2.2414e-21 0.0020839 21908
2 -17.0047 -10.6103 -0.15 2.77778e-12 1.09184e-20 -5.39591e-21 0.00204477 21907
2 -17.3101 -10.6072 -0.15 2.77778e-12 7.30211e-21 -4.59292e-21 0.00211568 16964
2 -16.844 -10.5217 -0.15 2.77778e-12 -1.28425e-21 -3.12781e-22 0.00200852 15243
1 -16.9862 -10.431 -0.15 2.77815e-11 0 0 0 6831
1 -17.2914 -10.4217 -0.15 3.05627e-11 0 0 0 6716
1 -17.1667 -10.7 -0.15 8.33784e-12 0 0 0 3637
1 -16.8611 -10.7 -0.15 1.94455e-11 0 0 0 365
2 -16.7005 -10.6113 -0.15 1.38889e-11 2.83604e-21 -2.41996e-21 0.00202279 16965
1 -16.6847 -10.4339 -0.15 3.33371e-11 0 0 0 6717
1 -16.5556 -10.7 -0.15 2.22255e-11 0 0 0 3638
2 -16.5416 -10.5227 -0.15 5.55555e-12 -2.08918e-21 -9.69629e-22 0.00198725 21906
2 -15.9331 -10.5211 -0.150464 0.00668426 7.76978e-06 3.74819e-06 0.0020505 21972
2 -16.3967 -10.6114 -0.15 2.77777e-12 1.83308e-21 -8.65632e-22 0.00202119 21905
2 -16.0921 -10.6109 -0.15 0.00462639 -5.85177e-07 -1.07104e-06 0.00203212 21638
2 -16.2387 -10.5223 -0.15 2.77778e-12 -6.22053e-21 5.14346e-21 0.00200718 16966
2 -16.2297 -10.3593 -0.15 1.11111e-11 2.39823e-21 1.27677e-20 0.00167499 12853
1 -16.0817 -10.4327 -0.15 0.0302193 0 0 0 6863
1 -16.3845 -10.4341 -0.15 1.73239e-07 0 0 0 6830
1 -15.9442 -10.6997 -0.150153 0.0178033 0 0 0 3639
1 -16.25 -10.7 -0.15 0.00462146 0 0 0 366
2 -15.7854 -10.6101 -0.151358 0.00647505 1.58263e-05 -8.08052e-07 0.00204046 21637
1 -15.7739 -10.4312 -0.151304 0.0517933 0 0 0 6696
2 -15.3292 -10.5326 -0.155833 0.0105214 1.98588e-05 -2.05019e-06 0.00170658 21973
1 -15.6385 -10.6994 -0.152483 0.0220734 0 0 0 367
2 -15.6255 -10.5221 -0.152629 0.0134758 1.8587e-05 1.65788e-06 0.00205436 21682
2 -15.1836 -10.6209 -0.158214 0.0343449 2.76937e-05 -7.44593e-06 0.0017939 16968
2 -15.4783 -10.6111 -0.154304 0.00210376 2.39098e-05 -2.74247e-06 0.00200921 16967
2 -15.6131 -10.357 -0.152637 0.00830804 1.60389e-05 -2.24583e-06 0.00176048 12852
1 -15.3326 -10.6992 -0.156141 0.0469914 0 0 0 3640
1 -15.1906 -10.4633 -0.15741 0.125984 0 0 0 6864
1 -15.4638 -10.435 -0.154085 0.0682803 0 0 0 6718
2 -15.0321 -10.5098 -0.160061 0.0325104 3.58326e-05 -6.97647e-06 0.00222738 12851
1 -15.0274 -10.699 -0.160969 0.0716224 0 0 0 3641
1 -14.8771 -10.367 -0.16208 0.136295 0 0 0 6829
1 -19 -10.0986 -0.15 2.31146e-11 0 0 0 3282
1 -19 -9.49565 -0.15 5.6111e-12 0 0 0 3281
1 -19 -9.7971 -0.15 9.36358e-12 0 0 0 31
2 -18.5407 -9.97052 -0.15 3.22222e-12 -1.35072e-20 1.91242e-20 0.00216772 24854
2 -18.5429 -10.2911 -0.15 1.38889e-11 5.98183e-21 -6.01005e-21 0.00211395 21912
2 -18.8154 -10.1176 -0.15 5.44444e-12 -3.41552e-21 1.24763e-20 0.00224874 21522
2 -18.6207 -10.1291 -0.15 8.22223e-12 -2.76734e-22 -1.51445e-21 0.00249431 21521
2 -18.8146 -9.49618 -0.15 2.80555e-12 3.18871e-22 4.82979e-23 0.00213653 21519
2 -18.5331 -9.65352 -0.15 2.80556e-12 -5.27787e-21 -8.22473e-21 0.00226397 21442
2 -18.9072 -10.263 -0.15 1.38889e-11 -6.59434e-22 -3.19893e-21 0.00208752 21296
2 -18.8155 -9.80391 -0.15 2.77778e-12 1.97534e-22 3.68648e-22 0.0021552 16625
2 -18.6131 -9.49599 -0.15 2.77778e-12 -1.70117e-20 1.01558e-21 0.00250789 12860
2 -18.9074 -9.64787 -0.15 2.80555e-12 -1.60224e-21 -3.863e-22 0.00208398 12859
2 -18.6427 -9.80976 -0.15 2.80556e-12 5.91288e-21 -3.35615e-21 0.00188299 12858
2 -18.9081 -9.95315 -0.15 3.77778e-12 -4.23779e-21 -8.74751e-21 0.00206698 12857
1 -18.4815 -9.81465 -0.15 1.46685e-11 0 0 0 8304
1 -18.7244 -9.96379 -0.15 2.62514e-11 0 0 0 6638
1 -18.7222 -9.65085 -0.15 1.67782e-11 0 0 0 6598
1 -18.7217 -10.2904 -0.15 4.42257e-11 0 0 0 6525
1 -18.3955 -9.49506 -0.15 1.39448e-11 0 0 0 1763
1 -18.4161 -10.1331 -0.15 3.99242e-11 0 0 0 1755
2 -18.3804 -10.336 -0.15 2.77778e-12 5.02913e-21 -2.88672e-20 0.00197822 21295
2 -18.3473 -9.92646 -0.15 3.02778e-12 -7.29204e-21 2.26099e-21 0.00264382 26506
2 -18.3405 -9.71377 -0.15 2.80556e-12 -1.59724e-20 -9.92786e-21 0.00271689 12880
2 -18.2481 -10.2412 -0.15 5.55556e-12 8.06733e-21 6.34357e-21 0.00219213 13215
2 -18.2182 -10.0434 -0.15 3.22222e-12 -1.85829e-21 -2.88419e-21 0.00263312 25003
2 -18.1898 -9.60281 -0.15 8.76515e-26 3.2872e-23 7.43181e-22 0.0031483 24853
2 -17.7158 -9.61016 -0.15 2.80555e-12 -4.79186e-21 -3.52516e-21 0.00169263 28206
2 -18.0062 -9.66986 -0.15 2.80556e-12 2.791e-20 3.46718e-21 0.0022215 28205
2 -17.5774 -9.51513 -0.15 2.77776e-14 -5.62144e-21 1.11736e-21 0.00197226 28082
2 -17.912 -9.8538 -0.15 3.47222e-12 -3.25883e-21 1.46124e-20 0.00284442 28081
2 -17.5618 -9.87621 -0.15 6.94446e-13 6.98576e-21 1.99656e-20 0.00269022 27994
2 -17.8688 -9.54108 -0.15 2.80556e-12 1.71061e-21 -9.62653e-21 0.00175417 27154
2 -17.7207 -9.80627 -0.15 3.22223e-12 -8.33695e-21 4.9776e-21 0.00231972 26505
2 -17.9218 -10.2012 -0.15 5.55556e-12 -2.81678e-20 1.00277e-20 0.00262334 25004
2 -17.5917 -10.2057 -0.15 5.55555e-12 1.9136e-20 1.45918e-20 0.00249641 21969
2 -18.0841 -10.3316 -0.15 5.55556e-12 -3.96244e-22 4.32373e-21 0.00193114 21598
2 -17.9952 -10.0102 -0.15 3.77778e-12 -1.79163e-20 3.52615e-21 0.003047 13216
2 -17.7589 -10.2814 -0.15 5.55555e-12 8.22582e-21 -3.14838e-20 0.00294797 12855
1 -17.8447 -9.69623 -0.15 1.51133e-11 0 0 0 9980
1 -17.5704 -9.689 -0.15 9.55723e-12 0 0 0 9918
1 -18.1444 -9.8316 -0.15 1.91135e-11 0 0 0 9130
1 -18.0941 -10.1653 -0.15 2.3674e-11 0 0 0 8379
1 -17.747 -10.0336 -0.15 3.18441e-11 0 0 0 1756
2 -17.5126 -10.0391 -0.15 4e-12 3.23973e-20 -1.53236e-20 0.00238841 28194
2 -17.4398 -10.3351 -0.15 2.77778e-12 1.27282e-21 1.06748e-20 0.00185508 28193
2 -17.4345 -9.58073 -0.15 2.80555e-12 2.62588e-21 3.84775e-21 0.0016812 13214
1 -17.4227 -10.1777 -0.15 1.68929e-11 0 0 0 9974
2 -17.4139 -9.74569 -0.15 7.0121e-25 3.4357e-21 3.46803e-21 0.00167861 15235
1 -17.3679 -9.90604 -0.15 7.19774e-12 0 0 0 9874
2 -17.1509 -9.61531 -0.15 2.80556e-12 -2.42771e-20 -1.56882e-21 0.00198306 29870
2 -17.271 -9.49398 -0.15 2.77779e-14 -1.06486e-20 -2.45998e-21 0.00195269 29869
2 -17.2721 -10.2402 -0.15 2.77778e-12 -1.53763e-20 -1.09651e-20 0.0021323 27993
2 -16.9751 -9.60646 -0.15 2.77777e-12 -3.30162e-21 -3.00087e-21 0.00256763 27944
2 -17.1797 -9.93409 -0.15 6.94445e-13 -2.17596e-21 7.38094e-21 0.00246466 27943
2 -17.2468 -9.7744 -0.15 2.7778e-14 9.40051e-22 9.48807e-22 0.0017527 27881
2 -16.9035 -10.0908 -0.15 3.77778e-12 2.13485e-20 -3.44742e-20 0.00199097 27784
2 -16.8794 -9.77672 -0.15 2.77778e-12 -4.40106e-22 -1.91645e-21 0.00229608 27502
2 -16.988 -9.94526 -0.15 3.22222e-12 5.13288e-21 1.47558e-20 0.00251406 27105
2 -17.1265 -10.3246 -0.15 1.38889e-11 2.16909e-21 -1.53863e-20 0.00232631 21678
2 -17.2976 -10.0683 -0.15 1.77778e-12 -2.15759e-20 4.29903e-21 0.00209033 21677
2 -16.9681 -10.2547 -0.15 2.77778e-12 2.02263e-20 6.62834e-21 0.00194518 12854
1 -17.3034 -9.64202 -0.15 5.66674e-12 0 0 0 10812
1 -17.0691 -9.77513 -0.15 1.2307e-11 0 0 0 9849
1 -16.8159 -10.2118 -0.15 2.20015e-11 0 0 0 9769
1 -16.7762 -9.61549 -0.15 1.39446e-11 0 0 0 9768
1 -16.7927 -9.93954 -0.15 2.25569e-11 0 0 0 9628
1 -17.102 -10.1211 -0.15 2.89211e-11 0 0 0 1757
2 -16.7075 -10.095 -0.15 9.88889e-12 -1.07362e-20 -1.72677e-20 0.00200185 21679
2 -16.6883 -9.78054 -0.15 2.47e-31 -1.01261e-22 3.65694e-22 0.00232879 27782
2 -16.6715 -10.2598 -0.15 2.77778e-12 -2.88158e-21 4.45258e-22 0.001925 27501
2 -16.6009 -9.95323 -0.15 2.88889e-12 -2.39591e-21 2.65647e-22 0.00249363 15244
2 -16.5824 -9.62336 -0.15 2.80555e-12 6.30078e-21 -7.80092e-22 0.00231049 15267
2 -16.5277 -10.3339 -0.15 5.55556e-12 -2.21007e-21 -1.58318e-20 0.00224506 21680
1 -16.5138 -10.1336 -0.15 3.13906e-08 0 0 0 1758
1 -16.4961 -9.78658 -0.15 1.296e-08 0 0 0 9430
2 -16.0569 -9.63678 -0.15 0.00351899 -2.1919e-07 -6.13575e-07 0.00119796 27824
2 -15.9364 -9.57164 -0.150067 0.000253269 1.84996e-06 8.99987e-07 0.00120471 27823
2 -16.1349 -9.50102 -0.15 2.80556e-12 5.42004e-21 -5.33633e-21 0.00119215 27500
2 -16.3957 -9.62925 -0.15 2.80556e-12 1.06993e-21 1.80195e-21 0.00213972 27106
2 -16.0166 -9.93329 -0.15 0.00618994 -5.92535e-07 -1.17748e-06 0.00281951 27074
2 -16.1164 -9.77012 -0.15 0.00352355 6.47799e-07 -1.28825e-06 0.00223725 25856
2 -16.4081 -9.95218 -0.15 4.44446e-13 -3.23276e-21 3.08674e-21 0.00249767 25855
2 -16.0737 -10.2555 -0.15 0.00273098 -5.95991e-07 8.35444e-07 0.00199905 25006
2 -16.317 -10.0937 -0.15 2.77778e-12 2.27473e-21 5.55978e-22 0.00200424 25005
2 -15.924 -10.3287 -0.150628 0.0161613 6.06584e-06 -4.30476e-06 0.00236943 21971
2 -16.3088 -9.78537 -0.15 2.77778e-14 7.71839e-21 1.79073e-23 0.00211949 15269
2 -16.1179 -10.09 -0.15 0.0027501 8.26368e-07 -2.08405e-06 0.00207379 15252
2 -16.3737 -10.2596 -0.15 5.55555e-12 1.66985e-20 3.17874e-21 0.00192723 15251
1 -16.0357 -9.53639 -0.15 0.00706439 0 0 0 9789
1 -16.216 -9.63316 -0.15 0.00703705 0 0 0 9627
1 -15.9187 -9.74052 -0.149943 0.0603571 0 0 0 9414
1 -16.2144 -9.93639 -0.15 0.0124876 0 0 0 8805
1 -16.2228 -10.211 -0.15 0.00548951 0 0 0 8380
1 -15.9168 -10.1225 -0.150097 0.0382089 0 0 0 1759
2 -15.8131 -9.92892 -0.150732 0.00409432 1.95039e-05 -3.23118e-06 0.00298048 25769
2 -15.7882 -9.593 -0.150492 0.0232104 9.07625e-06 9.09365e-07 0.00224326 27073
2 -15.7639 -10.2528 -0.151344 0.0006468 1.57546e-05 -3.41326e-07 0.00212711 15261
2 -15.7073 -10.0838 -0.151505 0.00567343 1.45971e-05 -3.05193e-06 0.00219805 24951
2 -15.7048 -9.75495 -0.151189 0.019535 1.22762e-05 -6.11821e-06 0.00258244 15270
2 -15.2181 -9.88111 -0.156024 0.0383442 3.51461e-05 -1.06183e-05 0.00258459 27953
2 -15.4018 -9.93588 -0.154206 0.0222815 2.51055e-05 -1.28775e-05 0.00257111 27790
2 -15.2197 -9.6591 -0.154968 0.00402605 2.80363e-05 -1.23665e-05 0.00233242 27789
2 -15.3991 -9.60641 -0.152784 0.013512 2.07177e-05 -8.57762e-06 0.00230903 27504
2 -15.5154 -9.76478 -0.152371 0.0173489 1.69784e-05 -5.18975e-06 0.00198694 25770
2 -15.4383 -10.2517 -0.154394 0.00637597 2.77294e-05 -1.14312e-06 0.00231533 24952
2 -15.1059 -10.3149 -0.158577 0.0210939 4.28354e-05 -1.69566e-06 0.00285333 21974
2 -15.3012 -10.3377 -0.155886 0.0274993 2.81157e-05 2.37725e-07 0.002325 21681
2 -15.4853 -10.0811 -0.153525 0.0124612 2.82471e-05 -4.27936e-06 0.0024601 15262
1 -15.3501 -9.76881 -0.153806 0.0955512 0 0 0 9772
1 -15.5914 -9.60136 -0.151215 0.0864146 0 0 0 9629
1 -15.6041 -9.9237 -0.152062 0.0814584 0 0 0 8762
1 -15.6012 -10.2048 -0.152484 0.0335081 0 0 0 8353
1 -15.2503 -10.1151 -0.156474 0.171262 0 0 0 1760
2 -15.0649 -9.55314 -0.156583 0.00916666 3.87563e-05 -1.4815e-05 0.00283358 27954
2 -15.0612 -9.96498 -0.158497 0.012467 3.999e-05 -1.24902e-05 0.00282924 29788
1 -15.0532 -9.75848 -0.157622 0.112639 0 0 0 9854
2 -15.0026 -10.1682 -0.159848 0.0307224 4.39453e-05 -6.0974e-06 0.0031889 21904
2 -14.8823 -9.6541 -0.159768 0.0123627 4.0398e-05 -1.40363e-05 0.00262853 15263
2 -14.88 -9.84434 -0.160688 0.0362581 3.52595e-05 -8.48462e-06 0.00228503 15264
1 -14.8798 -10.0219 -0.16133 0.109028 0 0 0 10771
1 -19 -8.89275 -0.15 5.58352e-12 0 0 0 3280
1 -19 -9.1942 -0.15 4.0496e-20 0 0 0 30
2 -18.3838 -8.66271 -0.15 2.80556e-12 -2.35279e-20 2.29219e-20 0.0020961 25921
2 -18.534 -9.33967 -0.15 2.77778e-12 -1.95123e-21 2.59528e-20 0.00220161 24870
2 -18.5498 -8.72254 -0.15 2.77777e-14 1.78107e-21 5.89298e-21 0.00205077 24856
2 -18.8157 -9.19056 -0.15 2.46986e-31 6.74162e-22 -1.01646e-21 0.00210925 21520
2 -18.623 -8.87853 -0.15 2.77778e-14 -4.4633e-21 5.48858e-21 0.00237292 21518
2 -18.5415 -9.02883 -0.15 2.80555e-12 1.49287e-20 -1.84788e-20 0.00212974 21444
2 -18.9085 -9.04079 -0.15 4.38256e-25 -1.54789e-21 2.15433e-21 0.00205888 21443
2 -18.9072 -9.34397 -0.15 1.75302e-24 -2.39498e-21 1.73906e-21 0.00208735 21441
2 -18.644 -9.18646 -0.15 2.80556e-12 2.26391e-21 2.57938e-21 0.00182242 16624
2 -18.9098 -8.73835 -0.15 2.80556e-12 -6.03681e-22 1.24714e-21 0.00203039 16623
2 -18.8183 -8.88639 -0.15 2.77778e-12 2.94624e-21 -1.35692e-21 0.00206575 15304
1 -18.4848 -9.1819 -0.15 1.39724e-11 0 0 0 8312
1 -18.7217 -9.34205 -0.15 1.11667e-11 0 0 0 6637
1 -18.7293 -8.73099 -0.15 1.12502e-11 0 0 0 6636
1 -18.7255 -9.03542 -0.15 8.41685e-12 0 0 0 6599
1 -18.4143 -8.86918 -0.15 1.12782e-11 0 0 0 1771
2 -18.3557 -9.07244 -0.15 2.80556e-12 -1.56407e-20 -1.46773e-20 0.00243783 12882
2 -18.3494 -9.28107 -0.15 2.77778e-12 3.01852e-21 5.10253e-21 0.00250363 26218
2 -18.2361 -8.75053 -0.15 2.77777e-12 6.92467e-21 -7.16831e-21 0.00260455 27091
2 -18.215 -8.95544 -0.15 2.77779e-14 1.54216e-21 -4.23981e-22 0.00283306 24869
2 -18.1976 -9.38102 -0.15 7.0121e-25 4.3438e-21 1.93062e-21 0.00291971 27153
1 -18.168 -9.16623 -0.15 1.40004e-11 0 0 0 8986
2 -17.7608 -8.99711 -0.15 2.80556e-12 -2.32856e-21 -1.30413e-21 0.0018461 28262
2 -17.9055 -8.89645 -0.15 2.80555e-12 2.94878e-22 -1.8986e-20 0.00166668 28261
2 -17.5889 -8.72264 -0.15 2.80556e-12 -4.07167e-22 -4.10906e-22 0.00241853 28146
2 -17.7505 -8.62512 -0.15 3.50605e-25 -1.19442e-21 2.42012e-21 0.00232565 27980
2 -17.5968 -9.32976 -0.15 2.80556e-12 2.25964e-21 -7.8736e-21 0.00226362 27882
2 -17.7508 -9.27747 -0.15 2.77779e-14 -8.4503e-21 2.2332e-21 0.00173032 27612
2 -17.6026 -8.92544 -0.15 2.80556e-12 -1.45871e-20 1.57123e-20 0.00253851 27611
2 -17.8844 -9.39376 -0.15 2.80556e-12 2.16476e-21 1.91853e-20 0.00155697 27472
2 -17.807 -9.14255 -0.15 2.80555e-12 -7.2572e-21 8.26431e-22 0.0014267 27471
2 -17.9089 -8.72726 -0.15 2.77778e-12 6.82222e-22 -9.88256e-21 0.00224745 27430
2 -17.9868 -9.15366 -0.15 2.80555e-12 2.46042e-20 1.88496e-21 0.00145047 27092
2 -18.0438 -9.01253 -0.15 2.77778e-12 1.94284e-20 -5.45426e-21 0.00189989 26217
2 -18.0297 -9.30076 -0.15 2.80556e-12 1.61697e-20 1.01723e-20 0.00186666 12881
2 -18.0683 -8.63843 -0.15 2.77778e-12 4.57923e-22 3.52568e-21 0.00230572 12861
1 -17.9008 -9.04046 -0.15 1.40002e-11 0 0 0 10008
1 -17.6286 -9.13288 -0.15 1.40838e-11 0 0 0 9683
1 -17.8915 -9.2543 -0.15 1.12502e-11 0 0 0 9613
1 -18.0295 -9.48176 -0.15 1.12225e-11 0 0 0 9454
1 -18.0627 -8.8309 -0.15 1.39451e-11 0 0 0 9423
1 -17.7531 -8.818 -0.15 1.40004e-11 0 0 0 1772
1 -17.7322 -9.44523 -0.15 1.12782e-11 0 0 0 1764
2 -17.442 -9.22382 -0.15 2.77778e-14 7.05085e-21 -1.03178e-20 0.0025254 15268
2 -17.4409 -9.02858 -0.15 2.80555e-12 1.78821e-21 -9.32228e-22 0.0027325 12879
1 -17.4296 -9.41116 -0.15 8.47239e-12 0 0 0 9818
1 -17.4261 -8.82545 -0.15 1.12505e-11 0 0 0 9950
2 -16.925 -8.67062 -0.15 2.77778e-12 4.40842e-21 2.75159e-20 0.00211856 28545
2 -17.1026 -9.02952 -0.15 8.76515e-26 -2.71091e-21 -6.85256e-21 0.002168 28306
2 -16.9381 -9.28647 -0.15 2.77777e-14 7.53077e-22 5.96679e-22 0.00207899 28305
2 -17.2467 -8.72411 -0.15 2.77777e-14 -2.37487e-21 2.37551e-21 0.00280897 28292
2 -16.8493 -8.82762 -0.15 2.80555e-12 7.19727e-21 -6.10934e-22 0.00246579 28203
2 -17.251 -8.92692 -0.15 2.80555e-12 -4.24696e-21 -2.19836e-21 0.0027479 28145
2 -17.1096 -9.22982 -0.15 2.77778e-12 -9.18952e-22 7.47441e-21 0.0021232 28088
2 -17.2592 -9.32245 -0.15 2.77778e-12 -9.81811e-21 4.35583e-21 0.00253885 28084
2 -16.9283 -8.98203 -0.15 2.77778e-12 -1.74354e-21 -1.193e-20 0.00208331 28083
2 -16.8698 -9.44721 -0.15 2.80556e-12 1.55726e-20 -4.12435e-22 0.00251173 27781
2 -16.8263 -9.13853 -0.15 2.77777e-14 -1.71826e-20 2.95851e-22 0.00180519 15236
1 -16.744 -8.67003 -0.15 1.6778e-11 0 0 0 10034
1 -16.981 -9.13327 -0.15 5.61138e-12 0 0 0 10030
1 -16.7447 -8.98493 -0.15 1.40002e-11 0 0 0 9979
1 -16.7532 -9.29737 -0.15 1.12225e-11 0 0 0 9921
1 -17.2678 -9.12741 -0.15 1.11948e-11 0 0 0 9919
1 -17.0591 -8.82789 -0.15 1.12225e-11 0 0 0 1773
1 -17.0801 -9.42876 -0.15 1.40001e-11 0 0 0 1765
2 -16.6681 -9.46029 -0.15 2.77778e-12 -2.99375e-21 4.75115e-21 0.00230042 28087
2 -16.6526 -9.14369 -0.15 2.80556e-12 -2.53195e-22 6.92151e-24 0.00225057 13213
2 -16.651 -8.82698 -0.15 2.77778e-12 -2.29068e-21 1.07105e-21 0.00219456 15274
2 -16.5626 -9.30472 -0.15 2.77778e-12 1.51889e-21 -1.63232e-22 0.00227533 27899
2 -16.5573 -8.66673 -0.15 2.80556e-12 1.01743e-21 -1.34194e-21 0.00224209 28384
2 -16.5562 -8.98656 -0.15 2.80555e-12 2.77035e-22 7.87546e-22 0.00227057 28204
2 -15.9929 -8.63984 -0.150028 0.00942104 -1.12494e-06 -3.19405e-07 0.0020137 28592
2 -16.369 -8.66095 -0.15 3.2431e-24 -3.82668e-21 6.0585e-21 0.00228091 28470
2 -16.0642 -8.80209 -0.15 0.00408265 4.60905e-07 -1.71704e-06 0.0026067 28469
2 -15.9572 -8.96149 -0.149986 0.0151268 1.34012e-06 1.62331e-06 0.00272624 28086
2 -16.2685 -8.81908 -0.15 2.54189e-24 5.36822e-21 2.32024e-21 0.00238486 28085
2 -15.9555 -9.30122 -0.150087 0.00590087 2.39323e-06 -1.85167e-06 0.00225877 27921
2 -16.3621 -8.98443 -0.15 2.77775e-14 -8.45202e-21 2.07323e-21 0.00240838 27900
2 -16.0579 -9.14808 -0.15 0.00372193 4.17481e-07 5.08304e-07 0.00264665 27620
2 -16.3625 -9.31677 -0.15 2.80556e-12 -1.91809e-20 -3.66239e-21 0.00250641 27619
2 -16.2813 -9.47823 -0.15 2.77778e-12 9.27512e-21 -2.19782e-20 0.00218953 27499
2 -16.2583 -9.15361 -0.15 2.80555e-12 -1.65031e-21 5.31103e-21 0.00266655 15273
2 -16.0146 -9.436 -0.15 0.00329825 1.16062e-06 5.40153e-07 0.0011989 15245
1 -16.1791 -8.65269 -0.15 0.016197 0 0 0 10112
1 -16.1622 -8.97855 -0.15 0.0229113 0 0 0 9920
1 -16.4597 -9.14876 -0.15 1.19512e-07 0 0 0 9827
1 -16.153 -9.33353 -0.15 0.0129099 0 0 0 9687
1 -16.4643 -8.82599 -0.15 1.42302e-08 0 0 0 1774
1 -16.4749 -9.46801 -0.15 1.67502e-11 0 0 0 1766
1 -15.8585 -9.13186 -0.150166 0.056646 0 0 0 9838
1 -15.855 -9.43791 -0.150281 0.0443135 0 0 0 1767
1 -15.851 -8.77476 -0.150065 0.0565695 0 0 0 1775
2 -15.762 -9.28654 -0.150549 0.00962869 4.98381e-06 4.1558e-07 0.00216299 27657
2 -15.7542 -8.95988 -0.150166 0.0122344 1.94054e-06 -4.20585e-06 0.00267779 27922
2 -15.6948 -8.65191 -0.149829 0.00645223 1.27131e-06 -5.10466e-06 0.00192019 28097
2 -15.6728 -9.44299 -0.150741 0.00203914 4.08088e-06 -1.37888e-06 0.00212008 27503
2 -15.3497 -8.6993 -0.150866 0.0367995 6.65113e-06 -1.36458e-06 0.00133009 30188
2 -15.6405 -8.80847 -0.150116 0.00430863 1.84441e-07 -2.95069e-06 0.00237351 29508
2 -15.3608 -8.97935 -0.151186 0.00908412 1.24143e-05 -5.89522e-06 0.00227435 29440
2 -15.3841 -9.2923 -0.152101 0.0264177 1.51377e-05 -6.60839e-06 0.00217111 29439
2 -15.2078 -9.24777 -0.153374 0.000524623 2.36765e-05 -6.90963e-06 0.00215809 28760
2 -15.2268 -8.638 -0.151337 0.00136335 6.50408e-06 -3.58692e-06 0.00137223 28665
2 -15.1903 -9.04009 -0.152816 0.0144872 2.29708e-05 -1.0161e-05 0.00224781 28098
2 -15.4838 -9.13363 -0.151036 0.0153764 1.05407e-05 -4.46814e-06 0.00186849 27658
2 -15.6614 -9.13141 -0.150508 0.0100042 3.69168e-06 -2.72669e-06 0.00232206 15275
2 -15.4731 -9.44693 -0.151695 0.010739 1.89066e-05 -5.48228e-06 0.00253218 15253
2 -15.4242 -8.82557 -0.150776 0.0332764 1.25776e-05 -5.17813e-06 0.00244622 15246
1 -15.5168 -8.67693 -0.149981 0.103353 0 0 0 10631
1 -15.3252 -9.13859 -0.151833 0.0659373 0 0 0 10597
1 -15.5535 -8.97347 -0.150306 0.0843184 0 0 0 9926
1 -15.5722 -9.28946 -0.150839 0.0742217 0 0 0 9706
1 -15.2034 -8.82609 -0.151862 0.134961 0 0 0 1776
1 -15.2554 -9.4497 -0.153501 0.0774653 0 0 0 1768
2 -15.0771 -8.65556 -0.152718 0.0221952 2.51042e-05 -7.04024e-06 0.00241695 28662
2 -15.0611 -9.35174 -0.155672 0.0131513 3.65557e-05 -1.30523e-05 0.00271371 28868
2 -15.0425 -8.96622 -0.154255 0.0104396 2.48637e-05 -7.23331e-06 0.00226083 27820
1 -15.0427 -9.15502 -0.154893 0.0426987 0 0 0 10257
2 -14.9892 -8.79752 -0.154237 0.00722384 2.43496e-05 -1.03519e-05 0.00214846 28672
1 -14.8859 -9.45071 -0.158678 0.0933653 0 0 0 10311
1 -14.882 -8.91779 -0.156029 0.0439907 0 0 0 10213
1 -14.8818 -8.64865 -0.154737 0.0622355 0 0 0 10208
2 -14.8812 -9.25201 -0.157725 0.00106386 3.39785e-05 -1.27609e-05 0.00242954 27819
2 -14.8798 -9.07424 -0.156826 0.00299356 2.69796e-05 -1.0392e-05 0.00191209 28671
1 -19 -8.28986 -0.15 8.34238e-14 0 0 0 3279
1 -19 -7.98841 -0.15 5.58222e-14 0 0 0 3278
1 -19 -8.5913 -0.15 5.63907e-12 0 0 0 29
2 -18.5541 -8.0852 -0.15 2.80556e-12 -8.07242e-21 7.48941e-22 0.00250317 24882
2 -18.3874 -8.4569 -0.15 2.77778e-12 3.29877e-21 -1.26315e-20 0.00212319 24855
2 -18.8204 -8.58263 -0.15 2.80556e-12 2.07717e-21 -3.20624e-21 0.00204771 21517
2 -18.6311 -8.26252 -0.15 2.77777e-12 -1.41243e-20 5.04488e-21 0.0024245 21516
2 -18.8321 -7.96914 -0.15 2.54189e-24 -7.97488e-22 -4.74803e-22 0.00190601 21515
2 -18.9201 -7.82806 -0.15 2.77777e-14 2.51823e-21 2.5568e-21 0.00179866 21514
2 -18.6657 -7.93755 -0.15 2.80556e-12 -1.6171e-21 1.98634e-20 0.00189377 21513
2 -18.5543 -8.41493 -0.15 2.80555e-12 1.27855e-20 -1.2776e-20 0.00206124 21446
2 -18.9107 -8.43558 -0.15 2.77776e-14 -2.75645e-21 4.20713e-21 0.00201039 21445
2 -18.912 -8.12949 -0.15 2.77775e-14 -1.41378e-21 3.35039e-21 0.0019796 16622
2 -18.6095 -7.78229 -0.15 2.77776e-14 2.62614e-22 6.91943e-21 0.0014675 15307
2 -18.8227 -8.27522 -0.15 2.77774e-14 -4.08229e-21 -6.63704e-21 0.00208951 15306
2 -18.6556 -8.57467 -0.15 2.80556e-12 9.28598e-22 5.03732e-21 0.00171016 15305
1 -18.5009 -7.89363 -0.15 8.47258e-12 0 0 0 8318
1 -18.5057 -8.56744 -0.15 1.12223e-11 0 0 0 8305
1 -18.7361 -8.1102 -0.15 8.44497e-12 0 0 0 6635
1 -18.7602 -7.80882 -0.15 5.63915e-12 0 0 0 6634
1 -18.732 -8.42559 -0.15 1.12502e-11 0 0 0 6600
1 -18.4253 -8.25176 -0.15 1.67224e-11 0 0 0 1779
2 -18.3793 -8.02731 -0.15 1.13947e-24 -1.0459e-21 9.43747e-22 0.00249522 25431
2 -18.3399 -7.81316 -0.15 2.80556e-12 3.70353e-24 -2.97156e-21 0.00225184 24881
2 -18.2436 -8.34761 -0.15 2.77778e-12 4.07084e-21 1.53812e-21 0.00267664 25922
2 -18.2371 -8.14262 -0.15 2.77778e-12 4.47721e-21 1.03189e-21 0.00268801 26875
1 -18.2313 -8.55151 -0.15 1.67228e-11 0 0 0 8838
1 -18.2118 -7.93654 -0.15 1.39725e-11 0 0 0 8593
2 -17.5892 -8.1197 -0.15 2.80556e-12 1.58053e-21 -1.18374e-21 0.0025526 27890
2 -17.7525 -8.02531 -0.15 2.80555e-12 -5.23517e-21 1.40392e-20 0.00240501 27634
2 -17.587 -8.32321 -0.15 2.80556e-12 6.98169e-22 3.19426e-21 0.00249372 27429
2 -17.9125 -8.13385 -0.15 2.77778e-12 8.84779e-22 -1.5442e-21 0.00241279 27398
2 -17.7594 -7.813 -0.15 2.77783e-14 -1.30638e-22 -8.65673e-21 0.00261308 27397
2 -17.9126 -8.33389 -0.15 2.77778e-12 -2.12332e-22 2.43578e-21 0.00238952 26876
2 -18.0655 -8.03629 -0.15 2.80556e-12 -1.22337e-21 2.31315e-21 0.00228474 15289
2 -18.0573 -7.85516 -0.15 2.77778e-12 7.83918e-21 3.58828e-21 0.00178715 15278
2 -18.0721 -8.44132 -0.15 2.80555e-12 2.84555e-21 -1.18329e-21 0.00241451 15277
2 -17.7504 -8.42886 -0.15 2.7778e-14 2.30171e-21 -9.55699e-21 0.00240874 15271
1 -17.5877 -8.52447 -0.15 5.66675e-12 0 0 0 9867
1 -17.5944 -7.91392 -0.15 1.1278e-11 0 0 0 9694
1 -17.9108 -8.53289 -0.15 1.1167e-11 0 0 0 9592
1 -17.9104 -7.93279 -0.15 1.40001e-11 0 0 0 9576
1 -18.0743 -8.23955 -0.15 1.67225e-11 0 0 0 9315
1 -17.7526 -8.22921 -0.15 1.40001e-11 0 0 0 1780
2 -17.4322 -7.8081 -0.15 2.80556e-12 2.01118e-21 -2.39995e-21 0.00242678 15288
2 -17.4265 -8.00967 -0.15 2.80556e-12 4.94516e-22 1.06207e-20 0.00254285 12862
2 -17.4229 -8.62297 -0.15 3.50605e-25 -5.137e-21 2.3188e-21 0.00251366 27979
2 -17.4211 -8.4198 -0.15 2.77782e-14 -8.22098e-23 -7.83403e-22 0.00253121 15272
1 -17.4206 -8.21595 -0.15 1.12503e-11 0 0 0 9822
2 -17.114 -7.78321 -0.15 2.80555e-12 2.96843e-20 -8.57952e-21 0.00220413 30169
2 -17.103 -7.99408 -0.15 2.77772e-14 9.04553e-21 2.90592e-20 0.00220308 28806
2 -17.0952 -8.41187 -0.15 2.80556e-12 1.88469e-20 -2.27076e-20 0.00220349 28546
2 -16.8494 -8.19317 -0.15 2.80556e-12 1.61082e-20 2.27006e-21 0.00253149 28472
2 -16.8194 -8.51139 -0.15 2.80556e-12 -1.86871e-22 -2.50572e-21 0.00182005 28471
2 -17.0953 -8.62027 -0.15 2.77776e-14 -2.17769e-21 1.2208e-20 0.00220045 28313
2 -17.2448 -8.31254 -0.15 2.77777e-12 -3.83863e-21 -3.16082e-21 0.00278163 28291
2 -16.9305 -8.03658 -0.15 2.80555e-12 1.45118e-20 1.71792e-20 0.00217905 28068
2 -16.9244 -8.3556 -0.15 2.77778e-12 4.29742e-21 -2.91321e-20 0.00213284 27889
2 -17.248 -8.10593 -0.15 2.77774e-14 -1.75191e-21 -2.37507e-21 0.00279935 27633
2 -16.8325 -7.8702 -0.15 2.77778e-12 -2.39606e-22 -1.75476e-21 0.00185135 15291
1 -16.9855 -7.88041 -0.15 1.11951e-11 0 0 0 10962
1 -16.7471 -8.02664 -0.15 1.12504e-11 0 0 0 10280
1 -16.9718 -8.51395 -0.15 1.11944e-11 0 0 0 10150
1 -16.7423 -8.35017 -0.15 1.40279e-11 0 0 0 10113
1 -17.255 -8.51899 -0.15 5.66692e-12 0 0 0 10023
1 -17.2645 -7.89915 -0.15 1.12783e-11 0 0 0 9911
1 -17.0589 -8.20269 -0.15 1.40283e-11 0 0 0 1781
2 -16.6607 -7.85873 -0.15 2.77778e-14 -3.19982e-21 1.10548e-21 0.00230846 15290
2 -16.6506 -8.18548 -0.15 2.77775e-14 -7.1315e-22 1.32216e-21 0.00227398 28805
2 -16.65 -8.50813 -0.15 2.80556e-12 -1.53219e-21 2.08924e-21 0.00222378 28314
2 -16.5598 -8.01742 -0.15 2.80556e-12 -7.52192e-22 -2.02447e-21 0.00233438 28697
2 -16.5561 -8.34465 -0.15 2.80555e-12 9.11455e-22 -2.6222e-21 0.002255 12878
2 -16.2725 -7.83217 -0.15 2.80556e-12 -7.43813e-21 -4.10119e-21 0.00267442 28604
2 -16.3673 -8.01068 -0.15 2.80484e-24 -3.7841e-21 -2.82875e-22 0.00246295 28603
2 -15.9793 -8.33916 -0.150084 0.0118222 7.4208e-07 -3.89236e-08 0.00220879 28548
2 -16.2685 -8.17435 -0.15 3.50605e-25 2.90539e-21 -4.3968e-21 0.00239148 28547
2 -15.9713 -8.01593 -0.150153 0.00903135 1.58413e-06 -2.12314e-06 0.00243907 28535
2 -16.2721 -8.49797 -0.15 2.77777e-14 2.75828e-22 -4.6434e-22 0.00225565 28383
2 -16.0531 -8.1774 -0.15 0.00709008 2.28013e-06 -9.62501e-07 0.00292551 15293
2 -16.3665 -8.34028 -0.15 2.77778e-12 -3.01721e-21 -8.11104e-22 0.00233758 15237
2 -16.1003 -8.49391 -0.15 0.00269116 2.85779e-07 1.13306e-06 0.00179067 13212
2 -16.0923 -7.83451 -0.15 0.00153615 6.90366e-08 -6.99589e-07 0.00219833 12877
1 -16.47 -7.84601 -0.15 4.18806e-09 0 0 0 10226
1 -15.929 -7.85312 -0.150024 0.0558214 0 0 0 10207
1 -16.1696 -8.0064 -0.15 0.0176535 0 0 0 10179
1 -15.948 -8.49175 -0.150054 0.0341566 0 0 0 10173
1 -16.1735 -8.33705 -0.15 0.0216102 0 0 0 10151
1 -16.4637 -8.50417 -0.15 2.2662e-08 0 0 0 10069
1 -16.4623 -8.17962 -0.15 1.95994e-07 0 0 0 1782
2 -15.8384 -8.59014 -0.14991 0.00491766 -4.80061e-06 -1.19661e-06 0.00159841 29355
2 -15.8266 -8.39492 -0.149885 0.00527639 -4.60333e-06 3.1093e-06 0.00178558 29356
1 -15.8158 -8.18846 -0.150271 0.115956 0 0 0 1783
2 -15.7984 -7.96419 -0.150058 0.0299076 -7.31222e-07 -8.60844e-07 0.00233968 28660
1 -15.7162 -8.50426 -0.149484 0.0256919 0 0 0 10555
2 -15.3099 -8.49145 -0.150575 0.0407266 5.96023e-06 -4.16915e-06 0.00126491 30187
2 -15.4331 -8.55263 -0.150108 0.0152512 5.59921e-06 -2.96588e-06 0.00122277 29507
2 -15.5615 -8.52218 -0.149744 0.00724752 2.78054e-06 -1.2439e-06 0.00172442 28740
2 -15.2518 -8.34338 -0.1506 0.0165896 1.75574e-05 9.86431e-08 0.00255223 28739
2 -15.6486 -8.04111 -0.150289 0.0138691 -1.0062e-06 -1.13662e-06 0.00238386 28646
2 -15.3632 -8.2072 -0.150475 0.00522359 9.89662e-06 5.40014e-06 0.00238257 28645
2 -15.6613 -8.35946 -0.149723 0.00173833 -1.08924e-06 3.96269e-06 0.00236831 28591
2 -15.4871 -7.92496 -0.150562 0.00947228 6.77239e-06 4.99271e-06 0.00189151 28424
2 -15.1654 -7.94467 -0.151824 0.00664171 1.51746e-05 6.62579e-06 0.00249373 28247
2 -15.5825 -8.21961 -0.150121 0.0371466 -1.58521e-06 5.70985e-06 0.00258866 15292
2 -15.3226 -8.02557 -0.150991 0.0110932 9.57233e-06 5.32675e-06 0.00221334 15238
1 -15.3299 -8.5956 -0.150766 0.0941984 0 0 0 10971
1 -15.4518 -8.38571 -0.149655 0.12396 0 0 0 10247
1 -15.1468 -8.49249 -0.151321 0.1256 0 0 0 10210
1 -15.4809 -8.08388 -0.15025 0.0768678 0 0 0 10200
1 -15.6494 -7.85041 -0.150161 0.100849 0 0 0 10145
1 -15.3305 -7.84094 -0.151254 0.0740068 0 0 0 10089
1 -15.1568 -8.1524 -0.151408 0.084689 0 0 0 1784
2 -15.0551 -8.32889 -0.152179 0.0297876 2.06616e-05 2.1394e-06 0.00245462 28666
1 -15.0085 -7.84042 -0.153021 0.0810567 0 0 0 10001
2 -15.0037 -8.02213 -0.152874 0.00741718 1.87769e-05 2.94207e-06 0.00211605 28358
2 -14.9631 -8.49473 -0.153285 0.0148629 2.2379e-05 -7.62082e-06 0.00210095 28482
2 -14.9545 -8.18922 -0.153271 0.00793952 1.69899e-05 2.69985e-06 0.00204776 15294
1 -19 -7.38551 -0.15 8.3889e-12 0 0 0 3277
1 -19 -7.68696 -0.15 5.6112e-12 0 0 0 28
1 -19 -7.08406 -0.15 8.41684e-12 0 0 0 27
2 -18.5545 -7.22577 -0.15 2.80555e-12 4.22718e-21 -3.55137e-21 0.00229476 29914
2 -18.4616 -7.54992 -0.15 2.80555e-12 -7.47425e-21 -8.10887e-21 0.00155904 29913
2 -18.4585 -7.71579 -0.15 2.77776e-14 -7.20491e-21 5.20697e-21 0.0016726 27170
2 -18.6129 -7.52102 -0.15 2.77776e-14 8.33127e-22 -1.30396e-20 0.00137035 27169
2 -18.6261 -7.06422 -0.15 2.77778e-12 -1.9239e-20 7.32347e-21 0.0024306 21512
2 -18.8201 -7.07337 -0.15 2.80555e-12 2.82937e-21 -8.65496e-21 0.00209869 21511
2 -18.9118 -7.23141 -0.15 2.80556e-12 -4.34409e-22 2.36393e-21 0.00198478 21448
2 -18.9204 -7.53169 -0.15 2.80556e-12 6.02625e-21 6.61433e-21 0.00179159 21447